ITEM: TIMESTEP
60000
ITEM: NUMBER OF ATOMS
4
ITEM: BOX BOUNDS pp ff pp
0.0282851 18.4034
-1 6
0.0282851 18.4034
ITEM: ATOMS id type x y z 
1 2 0.501252 3.17998 0.807485 
2 2 4.94239 3.15332 13.7942 
3 1 0.266452 4.10608 7.3906 
4 1 12.07351 3.88761 0.815118 
ITEM: TIMESTEP
600000
ITEM: NUMBER OF ATOMS
4
ITEM: BOX BOUNDS pp ff pp
0.0282851 18.4034
-1 6
0.0282851 18.4034
ITEM: ATOMS id type x y z 
1 2 3.501252 3.17998 0.807485 
2 2 4.94239 3.15332 13.7942 
3 1 0.266452 4.10608 7.3906 
4 1 12.07351 3.88761 0.815118 
