ITEM: TIMESTEP
60000
ITEM: NUMBER OF ATOMS
863
ITEM: BOX BOUNDS pp ff pp
0.0282851 18.4034
-1 6
0.0282851 18.4034
ITEM: ATOMS id type x y z 
289 2 0.501252 3.17998 0.807485 
496 2 4.94239 3.15332 16.7942 
1119 2 1.17242 3.62263 1.08882 
1143 2 1.2933 3.3133 0.290161 
887 1 0.266452 4.10608 1.3906 
288 1 2.07351 3.88761 0.815118 
194 2 3.16643 3.37127 0.779838 
268 1 4.27688 3.51495 0.842157 
23 1 3.7475 4.1676 1.45506 
286 1 5.1804 3.77803 0.343134 
283 2 5.17575 3.37346 1.25129 
284 2 5.87355 3.21544 0.748697 
259 1 5.76171 4.16111 1.19516 
280 1 6.69373 3.64215 1.17862 
279 2 7.62668 3.21838 0.473695 
16 2 6.20194 3.96363 0.308725 
282 2 7.1498 3.93023 0.249156 
249 2 7.69896 3.86273 1.1136 
276 2 8.41265 3.27413 0.943686 
263 2 8.13492 4.00773 0.379411 
278 2 9.03127 3.71985 0.514108 
222 2 8.59353 4.13611 1.17334 
191 1 0.663892 3.23088 1.85931 
193 1 0.881313 3.77592 2.74633 
904 1 1.26424 4.17435 1.86354 
21 1 2.73951 3.58471 1.65457 
900 2 1.79507 3.64766 2.58077 
174 2 2.51346 4.04031 2.92916 
196 2 2.58164 3.20098 2.56522 
197 1 3.90928 3.54745 2.55134 
199 2 4.52081 3.50839 1.84229 
200 2 5.97516 3.21415 1.71843 
10 1 4.91262 3.59375 2.92922 
11 2 5.36305 3.74609 2.04805 
8 1 5.99635 3.20248 2.74733 
26 1 7.30756 3.9215 2.00343 
12 2 7.15099 3.49328 2.98908 
34 1 6.26706 4.07398 2.16712 
80 2 8.76049 3.3885 2.516 
14 2 8.26662 3.59855 1.79608 
267 1 8.07205 4.14769 2.68705 
945 1 0.776827 3.97396 4.25001 
189 1 1.17864 3.28754 3.59262 
895 2 0.154768 3.57349 3.48304 
187 2 2.13269 3.31775 3.36475 
188 1 1.86173 3.60174 4.40944 
151 2 2.56509 3.92832 3.85919 
186 1 3.20901 3.47449 3.30945 
185 2 3.55937 3.31147 4.22821 
85 1 4.27239 3.90929 4.52318 
184 1 4.07627 4.1146 3.4619 
82 2 5.98955 3.91586 4.22827 
183 2 5.56982 3.26834 3.7167 
22 1 5.96765 4.13434 3.25454 
79 1 5.08708 4.15841 3.88266 
181 2 6.51714 3.33505 3.64952 
180 1 6.93991 3.63521 4.48239 
84 1 7.57703 4.11384 3.67579 
179 2 9.12861 3.43259 3.39884 
13 1 8.93261 3.83334 4.34813 
28 2 8.18753 3.38067 3.29972 
266 2 7.96967 3.61638 4.4141 
43 2 1.08535 3.19364 6.03353 
934 1 0.11932 3.73697 5.78309 
38 1 0.985355 3.53543 5.12964 
61 1 2.83665 3.53771 4.88184 
62 1 1.98407 3.40966 5.46856 
63 1 2.95042 3.58159 6.01728 
64 2 4.50344 3.75674 5.42884 
65 2 3.98011 3.5803 6.11517 
246 1 3.59563 4.15843 5.37102 
182 2 5.24629 3.71264 4.75472 
66 2 5.25888 3.25121 5.5964 
70 1 6.10931 3.65485 5.2327 
35 2 5.30667 4.12139 5.60389 
198 2 7.41507 3.4594 5.33013 
190 1 6.70995 3.54809 6.15239 
76 1 8.31687 3.99941 5.25275 
922 2 0.610087 3.60547 7.18065 
59 2 1.4814 3.68937 7.36629 
207 1 1.03227 4.1292 6.29876 
57 1 1.96016 3.67705 6.51694 
56 2 2.44965 3.78606 7.43003 
54 1 3.4049 3.5281 6.96904 
37 2 4.25848 4.01285 6.87194 
36 1 5.24181 3.79037 7.17708 
53 2 5.7488 3.68443 6.2443 
52 2 4.84615 3.67891 6.27587 
49 2 6.89192 3.55523 7.1292 
48 1 8.56608 3.62643 6.2312 
2 2 8.32209 3.88361 7.17348 
1036 1 1.02186 3.92659 8.22795 
1430 2 0.235345 3.82033 8.74014 
126 1 1.92252 3.2576 8.14828 
125 2 1.92995 3.55238 9.05692 
44 1 2.62121 4.11467 8.47051 
1007 1 3.4708 4.10993 7.8908 
129 2 3.95793 3.27161 7.77426 
1425 2 3.53165 3.69276 8.87642 
1137 1 4.42168 4.17414 8.67919 
140 2 4.45029 4.12386 7.70698 
723 1 5.29432 3.61854 9.0814 
154 2 6.11996 4.17303 8.59349 
132 1 4.82563 3.27264 8.17382 
145 2 5.30774 4.08253 8.17871 
158 1 6.09804 3.63973 7.74625 
135 1 6.88774 3.45669 8.66611 
134 1 7.6534 3.92764 7.97663 
138 1 8.47069 3.27969 8.06816 
7 2 8.93525 4.12479 7.76086 
160 2 8.70677 4.05568 8.6138 
139 2 9.09499 3.24418 8.86747 
167 1 7.91147 3.56091 8.91952 
727 1 1.0741 3.73111 10.3929 
1034 2 1.09945 3.79403 9.34074 
1320 1 0.252844 4.11607 9.75095 
729 2 0.137809 3.18616 9.31445 
725 1 2.1084 3.36789 10.6168 
141 1 1.95523 4.1077 9.8513 
1426 1 2.91059 4.0036 10.3593 
143 2 2.83478 3.99473 9.39294 
128 2 2.44666 3.20944 9.70161 
1572 2 3.33522 3.30508 9.71331 
149 1 4.26314 3.36943 9.48585 
713 2 4.15831 3.79063 10.3616 
639 2 3.68846 4.1533 9.67298 
726 2 5.00064 3.57822 10.0603 
721 1 5.95768 3.42429 10.2478 
157 2 6.24285 3.73994 9.36879 
133 1 7.15312 3.64792 9.74831 
693 1 7.92473 3.89247 10.4772 
718 2 8.90381 3.7052 10.4777 
161 2 8.71418 3.82404 9.50556 
719 2 8.02783 3.20914 9.80363 
1524 1 0.376618 4.01213 11.1893 
1371 2 1.38392 3.88769 11.3679 
1322 1 0.700883 3.64867 12.2256 
1323 2 2.48805 4.06671 12.071 
1357 2 2.25121 4.11883 11.1826 
705 2 3.5028 3.42553 10.8334 
632 2 3.54341 3.34956 12.1731 
631 1 4.36684 3.48076 11.6787 
1423 1 3.24775 4.13214 11.4053 
722 1 5.16688 3.5322 11.0197 
634 2 5.82007 3.50956 11.7209 
704 1 6.9216 3.88134 10.7628 
720 2 6.66325 3.88026 11.6956 
455 2 7.69768 3.88499 11.4784 
636 1 9.00216 3.36099 11.4418 
1297 2 0.976463 3.90749 13.1571 
1377 2 2.89969 3.78115 13.5888 
506 1 1.68196 3.33131 12.7439 
626 1 2.7138 3.26675 12.6931 
613 1 2.00183 4.10093 13.3925 
627 1 3.81556 3.95302 13.172 
624 2 4.4328 3.34151 12.6647 
625 2 5.72845 3.88789 13.2453 
622 2 5.25039 3.72394 12.4607 
658 2 4.81347 3.97555 13.2945 
452 2 6.09329 4.03495 12.4006 
635 1 6.6926 3.58475 13.1295 
520 1 7.2605 4.15849 12.4148 
457 1 8.31433 3.87106 12.2892 
519 1 7.87443 4.08578 13.3661 
618 1 8.72018 3.28842 13.0735 
1327 1 0.409786 4.09875 14.4345 
450 2 0.432896 3.48399 15.1905 
1549 2 1.24633 3.85177 14.8572 
1311 2 2.56929 3.38399 14.3485 
644 1 4.2438 3.94841 14.1699 
448 1 3.80346 3.69746 15.0978 
443 1 5.47729 3.3122 15.2371 
444 1 5.30596 3.55662 14.0834 
446 1 4.85423 4.15224 15.0886 
672 2 7.29373 3.71607 14.2336 
530 2 6.35784 3.64616 14.1126 
691 2 7.40631 3.97301 15.1546 
584 1 6.4505 3.71335 15.1343 
485 1 8.17122 3.3033 14.7473 
503 2 8.62935 3.78608 13.9415 
1467 1 1.46595 4.15239 16.5004 
1459 2 1.2316 3.41628 15.6741 
501 2 0.402179 3.59032 16.1099 
1080 2 1.81447 4.13634 15.5297 
1312 1 2.73206 3.7842 15.3692 
500 2 2.06356 3.44425 16.0612 
570 2 2.99099 3.34294 16.6588 
497 1 3.98614 3.32348 16.6316 
1561 2 3.45216 3.82248 16.0123 
495 1 4.5723 3.29351 15.7263 
583 2 5.30541 3.9335 16.5054 
493 1 6.31258 3.65781 16.368 
491 1 7.29644 3.38998 15.955 
469 1 8.42584 4.08451 15.3606 
488 1 8.17756 3.69314 16.616 
1457 2 0.4994 4.04658 16.9076 
1468 1 1.21557 3.57412 17.7195 
566 2 0.418557 3.22681 18.3251 
1445 2 0.641433 4.1336 18.4033 
487 2 2.98138 3.90065 17.3892 
498 1 2.06534 3.41396 17.0397 
275 1 2.71149 3.71662 18.3316 
572 1 3.78096 3.1902 18.3629 
1567 2 4.34538 3.95869 18.1751 
568 2 3.80906 3.61159 17.5173 
996 1 4.62405 4.06977 17.2218 
574 2 5.84386 3.23094 18.2194 
589 1 5.78531 3.43123 17.2401 
577 1 7.16413 3.36357 17.0394 
575 1 6.61405 3.88108 17.7679 
580 1 8.87435 3.49556 17.3694 
470 2 8.71298 4.14482 18.0674 
578 1 7.74512 3.91698 17.7543 
1141 1 1.1295 4.53919 0.857547 
1128 1 0.89115 5.23726 0.0877357 
897 2 0.148607 4.71108 0.623324 
898 1 1.70942 5.16374 1.54443 
18 1 2.80938 4.60182 1.12134 
988 2 1.99752 4.94778 0.590378 
901 2 3.68536 5.08566 0.925926 
271 1 4.51716 4.55127 0.632505 
19 1 3.55614 4.22801 0.339932 
274 2 5.47706 4.77855 0.358039 
171 1 5.0047 5.30351 1.20275 
146 1 6.07043 5.27077 1.01064 
569 2 7.51539 4.73108 0.0914936 
17 1 6.95328 4.62097 0.943722 
598 2 7.90633 4.74319 0.922504 
285 1 8.72977 4.83126 0.399505 
1123 1 0.591951 5.1351 1.56774 
892 2 0.419923 4.5043 2.32763 
993 1 1.33829 4.87605 2.63507 
902 1 2.26216 4.41268 2.03928 
894 1 2.9217 5.28339 1.97983 
987 1 2.37659 5.05433 2.89203 
192 1 3.27833 4.38552 2.39264 
173 1 3.98764 5.12592 1.90979 
20 2 4.36379 4.42038 2.53546 
944 1 3.77275 5.12845 3.026 
24 1 4.79429 4.40138 1.66302 
124 2 4.92568 5.2111 2.24281 
90 2 5.74871 4.89736 1.88281 
25 2 5.36431 4.44664 2.55104 
245 1 6.03447 5.11163 2.80992 
597 1 6.79817 4.97195 1.93357 
27 1 6.93908 4.46827 2.89503 
253 1 9.04385 4.26715 2.11884 
477 2 8.05638 4.57687 1.7973 
899 1 0.480794 5.32889 3.12289 
1019 2 0.759242 4.45626 3.41192 
950 1 1.48355 5.25142 3.64788 
992 1 0.457454 5.00045 4.16422 
175 2 1.56634 4.54895 4.32009 
205 2 2.3854 4.78155 3.82535 
943 2 2.19307 5.25755 4.54199 
210 2 2.38511 4.38544 4.61623 
942 1 1.70033 4.1909 3.4157 
83 1 3.33499 4.29899 4.32566 
955 1 3.24751 5.29306 3.98313 
152 2 3.11302 4.48649 3.386 
163 1 4.31163 4.94802 4.11995 
1122 1 4.87336 4.96611 3.2133 
242 1 5.76591 5.03962 3.867 
81 2 6.64618 4.43726 3.93742 
74 2 8.58162 4.19797 3.52643 
869 1 1.23528 5.29374 4.85633 
918 1 0.511096 4.56823 5.20451 
951 2 1.24878 5.04224 5.9251 
935 1 1.61574 4.38163 5.28969 
144 2 2.61409 4.34245 5.4613 
1116 1 2.15342 5.28841 5.49128 
1118 2 2.99071 4.99656 4.95108 
956 2 2.07298 4.58524 6.135 
1131 1 3.13452 5.0621 5.95569 
225 1 4.0189 5.11885 5.15003 
243 1 4.41721 4.53744 6.00867 
247 2 4.81288 4.55494 5.03304 
252 1 5.76956 4.67873 4.88902 
251 2 6.05608 4.47492 5.90317 
248 2 5.23234 5.04803 5.69555 
871 1 0.152712 4.7622 6.23386 
873 1 0.639679 4.59204 7.22341 
60 1 1.74945 4.60407 7.07011 
214 2 2.49033 5.18443 6.72513 
877 2 2.70742 4.29059 6.71889 
867 2 2.63502 4.65288 7.54122 
41 2 3.54089 4.29241 6.3612 
46 1 3.54983 4.88394 7.1159 
153 2 4.61714 4.78524 7.02486 
250 2 5.29621 4.46733 6.43613 
218 1 5.57762 5.19575 7.06013 
51 1 6.22271 4.29408 6.8981 
150 2 6.63281 5.07826 7.44369 
156 1 7.35527 4.43012 7.11589 
159 1 8.28251 4.84143 7.65486 
1009 1 0.160524 4.63289 8.16764 
1120 2 0.751041 4.57635 8.97898 
1032 1 1.2036 4.97412 8.09625 
1428 1 1.51667 5.27195 9.13644 
1028 2 1.67819 4.36794 8.82777 
1509 1 2.22347 5.1353 8.31586 
875 2 1.85982 4.2803 7.94811 
241 2 4.01325 4.9028 8.09659 
1035 2 3.16686 5.16864 8.02919 
1431 1 3.43636 4.71586 8.88721 
45 2 4.39549 5.14846 8.9221 
42 1 4.96637 4.99302 7.9534 
148 2 5.90491 4.62951 7.81027 
1429 1 5.36147 4.73422 8.94432 
131 2 6.7673 4.30252 7.9307 
707 1 7.13666 4.43835 8.93405 
142 1 6.42083 5.1254 8.44321 
147 2 7.37756 4.90174 8.08552 
254 2 9.08054 4.83999 8.31972 
39 1 8.18656 4.87215 8.79251 
1033 2 1.11669 4.6386 9.81228 
1328 1 2.05448 5.15266 10.1065 
1324 2 2.39756 4.76467 9.23007 
728 1 3.10964 4.9453 9.90712 
130 2 4.61808 4.29787 9.62799 
710 2 3.78376 4.5829 10.5501 
876 2 4.09803 4.96992 9.78917 
712 2 5.53401 4.26442 9.80374 
1338 1 4.82501 4.46138 10.6221 
706 2 6.38022 4.28522 10.091 
643 1 7.22123 4.73456 10.1239 
711 2 6.26426 4.68547 9.33056 
638 2 7.90062 4.30036 9.563 
641 1 8.60593 4.64129 10.1461 
717 2 9.08474 4.65525 9.24318 
1388 2 0.964648 4.62207 11.6912 
1333 1 1.3777 4.68999 10.7707 
1563 1 1.97234 4.89312 11.6818 
1301 1 3.00718 4.95069 12.0717 
1553 1 2.76839 4.9505 10.9067 
1575 2 4.20402 4.43755 11.401 
1557 2 3.69102 5.1624 11.2707 
505 2 3.67378 4.25283 12.2562 
1372 1 4.15664 5.12421 12.1508 
640 1 5.1582 4.37873 11.7271 
649 1 5.99853 4.2515 11.0573 
612 2 6.40954 4.75882 11.942 
1424 2 7.27904 5.149 12.1793 
633 2 7.14264 4.64307 11.4461 
724 2 7.85638 4.74591 10.9147 
607 2 8.00934 4.67967 11.7976 
647 1 8.96359 4.70273 12.0571 
701 1 8.7227 5.19442 11.0779 
697 2 8.5503 4.19288 11.2225 
1391 1 0.179577 4.42009 13.423 
1376 2 1.24899 4.75876 13.2272 
1299 2 0.593712 4.57408 12.5386 
1374 1 1.23152 5.29536 12.3922 
1472 1 1.5607 4.27596 12.4018 
1373 2 2.82016 4.70432 13.6488 
1546 1 2.23468 5.01985 12.8274 
1329 2 2.91123 4.27639 12.839 
630 2 4.50892 4.20547 12.4423 
1427 2 3.54612 4.89562 12.9907 
615 2 4.46996 4.81657 13.1493 
642 2 5.29184 4.58251 12.8068 
614 1 6.35541 4.74261 12.9814 
606 2 7.31142 4.92279 13.0884 
445 2 6.95256 4.36794 13.7026 
585 1 8.20798 4.99003 12.7103 
515 1 8.92967 4.29219 13.098 
480 1 8.53505 5.04201 13.7619 
1551 2 1.26612 4.2296 13.9843 
1321 1 0.72257 5.11679 14.014 
1548 1 1.35959 4.8943 14.882 
1499 2 0.360614 4.96047 14.9389 
1555 1 2.11158 4.21318 14.5513 
1382 1 1.89081 5.06848 13.9169 
1306 1 3.18428 4.24167 14.4372 
1554 1 3.86699 4.92197 13.9284 
486 1 3.97941 4.77781 15.0672 
449 1 5.47821 5.13464 14.8894 
616 1 5.03511 4.6449 13.9976 
645 2 6.04083 4.47453 13.8865 
1370 2 5.76088 4.19321 14.688 
652 1 7.45387 5.19695 14.0278 
484 1 6.77245 4.60375 14.6442 
518 1 7.979 4.3758 14.4245 
482 2 8.88019 4.81315 14.7748 
437 1 0.436147 5.30998 15.833 
1307 1 0.839329 4.3088 15.5916 
1303 2 0.0979582 4.45259 16.2075 
1133 2 0.814804 4.85631 16.614 
1298 1 1.53732 5.07995 15.9148 
1552 1 2.51311 4.83949 15.3559 
1456 1 2.48628 5.27218 16.3396 
1314 1 2.58626 4.2315 16.4219 
1096 1 3.45786 4.84678 16.0689 
1071 1 4.37616 4.24839 16.1386 
1316 2 3.59563 4.19048 16.8335 
1470 2 4.8276 4.98676 15.6757 
1558 1 5.70613 4.35691 15.7176 
272 1 5.17791 4.92913 16.6592 
587 1 6.78255 4.52233 15.7465 
656 1 7.4307 5.18835 16.3784 
1067 2 7.07395 4.26499 16.6422 
481 1 8.47459 5.30615 16.8077 
499 2 7.71331 4.30347 15.9863 
586 2 8.59833 4.52614 16.2442 
1326 2 0.124263 4.84863 17.2131 
1461 1 1.00355 4.60604 17.586 
1463 2 0.0729367 4.82763 18.1008 
1342 2 1.6817 5.05951 16.9329 
1460 2 1.56657 4.26466 18.3806 
1117 1 2.08894 4.34648 17.513 
941 1 2.76188 4.80414 18.2913 
1309 2 1.78716 5.11151 18.0362 
1313 1 2.96784 4.89798 17.2144 
1462 1 4.11816 5.03456 16.9389 
1446 2 3.70869 4.48879 17.7135 
903 1 4.66141 4.88504 17.9374 
287 1 5.57928 4.2956 17.8433 
1466 1 6.1371 4.56429 16.9126 
646 1 6.44554 4.87455 18.3787 
273 1 7.11756 4.85522 17.5065 
582 1 8.19599 4.95295 17.813 
590 2 8.75319 4.43365 17.1503 
492 2 7.87645 4.53686 16.9544 
571 2 9.17367 4.96701 17.8491 
1147 2 15.3081 3.18175 0.588525 
885 1 10.2452 3.17176 5.2203 
1581 1 12.3162 3.17701 10.2182 
1480 1 13.8159 3.17029 12.7582 
1153 1 9.92451 3.33891 0.711642 
122 2 10.728 3.82922 0.693551 
938 1 9.25291 3.41233 1.55768 
609 2 11.4869 3.34953 0.418853 
244 2 11.5134 3.99091 1.06472 
605 1 12.1537 4.16638 0.362625 
1447 1 12.6544 3.34949 0.884423 
1149 2 13.5994 3.37631 0.645865 
67 1 13.5948 4.11668 1.28705 
1148 2 14.4702 3.36359 0.757753 
1437 1 15.0424 4.16743 0.812132 
1124 2 15.8697 3.73477 1.06214 
1126 1 16.7325 3.3385 1.23936 
1135 2 15.6992 3.83488 0.115369 
1076 1 16.6387 4.12653 0.464541 
1144 1 17.4717 4.08826 1.17456 
1142 2 18.1038 3.26476 1.33197 
1469 1 18.153 3.76645 0.451069 
15 2 9.62924 3.53144 2.55316 
940 1 10.7465 3.47784 2.61211 
29 2 10.8473 3.74933 1.63236 
592 2 11.7658 3.6823 1.85488 
1139 2 11.6464 3.83789 2.72311 
68 2 12.463 3.94354 2.33851 
1150 2 13.0848 3.48958 1.88118 
1055 2 12.78 3.28033 2.87211 
97 2 13.8041 4.00287 2.23196 
1062 1 14.0188 3.19285 1.65052 
1057 1 15.0828 3.26401 1.5997 
1056 1 14.7788 3.89784 2.4805 
1058 1 13.8859 3.39674 3.00253 
1065 2 16.0025 3.40623 1.88944 
1068 1 16.6421 3.35949 2.62646 
891 1 15.8314 4.10606 2.61738 
1132 1 16.7048 4.15843 1.92249 
1064 2 15.4909 3.19385 2.59021 
1063 2 17.3721 4.06152 2.64756 
1069 2 17.4307 3.39635 1.96915 
1070 1 18.2522 3.6065 2.51877 
30 1 9.98985 3.92612 4.51818 
176 1 10.1195 3.64564 3.46299 
1052 1 11.157 3.77005 3.57928 
1066 2 11.758 3.94178 4.35937 
1051 2 10.9003 3.52804 4.48214 
1050 1 12.2559 3.89639 3.46643 
1049 2 12.4615 3.37223 4.39864 
1048 2 13.1264 3.52102 3.74727 
1025 2 14.5578 3.83721 3.80843 
1045 2 15.0177 3.19325 4.2462 
1043 1 15.7577 3.49439 3.50393 
1042 1 16.6915 3.72344 4.09327 
915 2 15.7551 3.65675 4.47838 
888 2 16.5955 4.15417 3.2151 
990 2 17.4846 3.33217 3.178 
1041 1 17.6727 3.38159 4.14281 
261 1 10.2553 4.1779 5.57775 
886 1 9.31751 3.63609 5.44569 
884 1 11.6303 3.19531 5.07626 
883 1 11.0605 3.45825 5.95151 
882 2 12.1321 3.41642 5.96313 
1059 2 13.4208 4.0895 5.33405 
879 2 13.313 3.56747 4.63435 
913 1 13.2882 3.34046 5.89648 
169 1 12.3894 3.94484 5.17661 
881 1 14.2831 3.97365 4.74211 
880 1 14.2951 3.82814 5.78254 
868 2 15.1901 3.26408 5.85825 
1073 2 15.2353 3.85296 5.2026 
1121 1 16.1444 3.56364 5.53863 
917 1 17.1775 3.46233 5.13996 
870 2 18.2457 3.76941 4.84314 
1031 2 17.3917 3.80541 6.10305 
932 2 10.2888 3.65287 7.32175 
933 2 10.1726 3.57756 6.3896 
931 1 9.36444 3.87482 6.92173 
916 2 11.0163 3.8321 6.82558 
930 2 11.1311 3.41578 7.62053 
1012 2 11.7682 4.08369 6.37201 
47 2 11.7826 4.03923 7.27566 
929 1 12.7873 3.48416 6.8691 
912 2 14.2632 3.71436 7.40625 
1091 2 14.7636 3.50472 6.61849 
928 2 13.8553 3.45174 6.67517 
925 1 15.2834 3.38045 7.43066 
923 1 16.3603 3.4406 7.3053 
924 2 15.762 3.4556 6.51434 
874 1 18.1174 3.85015 6.75393 
1024 2 17.2508 4.02765 7.15792 
162 1 9.68016 4.02505 8.72635 
715 2 10.5631 3.73691 9.14294 
166 2 10.4572 3.64841 8.20272 
997 1 9.52698 3.35051 7.90412 
137 1 11.4387 3.95229 8.50933 
1000 1 12.1062 3.35688 7.84151 
999 1 12.5326 3.95897 8.73714 
1014 1 13.0217 3.96682 7.80159 
1021 1 13.7099 3.82757 8.60915 
1004 2 15.2895 3.38252 8.41592 
1002 2 14.606 3.93738 8.15586 
1018 2 14.8468 4.02062 8.98338 
1005 1 15.8561 3.86859 9.1294 
1030 1 16.8697 4.0909 8.79992 
1029 2 16.2167 3.5395 8.27877 
1006 1 18.1102 3.67951 7.79344 
1008 2 17.7675 3.47194 8.72915 
906 2 17.1194 3.54774 7.95264 
653 1 9.66466 3.61018 9.66759 
31 2 10.487 3.82809 10.0937 
716 2 9.75195 3.61246 10.7108 
564 1 11.4164 3.75634 10.3546 
1011 2 11.5032 3.56066 9.39882 
1571 2 12.2472 3.98605 9.68823 
1580 1 13.341 3.33296 10.151 
1585 1 12.6999 4.12936 10.5566 
1568 1 14.0009 4.08028 10.443 
1578 2 14.1243 3.67069 9.49534 
1003 1 15.0369 3.40184 9.66105 
1565 2 14.964 4.03259 10.696 
1559 2 15.6071 4.09821 10.0528 
1023 2 16.425 3.94065 10.4131 
1576 1 16.4636 3.26236 9.73038 
1579 2 15.4878 3.27703 10.4934 
1573 1 17.3398 3.40549 10.6712 
1026 1 17.2218 4.05855 9.80067 
1574 1 18.3876 3.29194 10.3874 
467 2 10.5571 3.96688 10.9868 
1355 1 10.6403 3.94833 12.0593 
464 1 9.73562 4.16769 11.5401 
1368 2 11.0737 3.32779 11.2822 
1366 2 12.0097 3.47777 11.1138 
1367 1 11.6719 3.60962 12.1066 
1365 2 13.3188 3.40773 11.9009 
1364 2 12.9222 3.3035 11.0582 
1310 1 12.5761 4.08025 11.6658 
1583 2 13.4945 4.06237 11.2848 
1363 2 13.8097 3.2722 11.0189 
1300 2 14.3669 3.93921 11.3823 
1304 1 15.1367 3.57541 11.8874 
1362 2 14.7676 3.21649 11.0553 
1308 2 14.0472 3.93335 12.2093 
1577 2 15.7302 3.82079 11.1389 
1361 2 16.1312 3.38148 11.8109 
1547 1 16.6911 4.16037 11.3201 
1319 1 17.7156 3.95685 11.537 
694 2 9.33051 3.72111 12.3314 
454 2 9.475 3.6234 13.6981 
516 1 9.98582 4.17411 13.0558 
511 2 10.8912 3.68809 13.0427 
1488 2 11.7554 3.36973 13.1496 
1482 2 13.2321 3.47226 13.4733 
1483 1 12.6215 3.57754 12.6383 
1491 2 12.3639 3.67224 13.7957 
1485 2 14.0363 3.93029 13.5491 
507 1 14.7461 3.78568 12.9067 
1315 1 15.8474 3.57299 12.7758 
1359 1 16.8628 3.96336 12.3625 
1475 2 16.3351 3.81235 13.5778 
1478 2 15.4223 3.77524 13.6228 
1375 2 18.2154 4.09343 12.3933 
1474 2 17.6231 3.38211 12.3205 
1476 2 17.1829 3.56637 13.2223 
1473 1 18.2065 3.45563 13.1317 
665 2 10.0615 4.07802 15.2353 
1486 1 10.2831 4.0558 14.0807 
504 2 10.0692 3.30371 14.7023 
698 1 9.31505 3.94083 14.6573 
474 1 10.9913 4.16107 14.8594 
510 1 11.2922 3.69526 13.9581 
699 1 11.8424 3.7999 15.3212 
708 2 11.958 3.22159 14.4966 
1450 2 12.7072 3.74017 14.7572 
1504 2 13.5769 4.05789 15.0015 
1490 2 13.7508 3.52433 14.2615 
1515 2 14.433 3.6302 14.9783 
442 2 14.7323 3.48468 14.1219 
1494 2 15.5292 3.85398 14.5261 
1498 2 16.2058 3.30524 14.9209 
1477 2 17.8029 3.9116 13.8545 
1500 1 16.9587 3.54321 14.26 
1501 1 17.9302 3.52762 14.7371 
439 1 9.32202 3.84876 16.4913 
1351 1 10.6981 3.4139 15.5618 
603 2 10.3125 3.65665 16.3966 
1352 1 9.30804 3.29916 15.522 
1349 1 12.0176 3.39254 16.3397 
509 1 12.8608 3.64171 15.7212 
438 1 12.9466 4.1699 16.7843 
1519 1 13.9062 3.66217 15.9102 
1345 1 14.6431 3.68591 16.7007 
441 2 16.4862 4.06822 15.9543 
1347 2 15.6553 3.82468 15.4302 
1331 1 15.5708 4.02345 16.3847 
1341 1 17.0403 3.47869 15.3768 
1337 1 18.0622 3.43167 16.8029 
1339 1 17.0556 3.36646 16.4558 
1433 1 9.91582 3.27281 17.2186 
581 1 10.4211 3.87763 17.9733 
277 2 9.47608 3.42396 18.1562 
602 2 9.55106 4.17189 17.5584 
1448 1 11.4995 3.78551 17.9523 
471 2 10.9364 3.7176 17.0945 
1152 2 12.2531 3.2791 18.2801 
1334 2 13.0616 3.54678 18.1912 
1435 2 12.4706 3.4323 17.3709 
1452 2 13.7557 3.65004 17.2244 
600 2 12.4484 4.16284 17.8296 
1442 1 13.9724 3.28508 18.1597 
1443 2 14.8629 3.64501 18.2878 
1439 2 15.3796 3.81737 17.4597 
1346 1 16.3348 3.93019 17.0559 
1465 1 16.5609 3.51321 17.9679 
1114 2 17.4457 3.81541 18.1759 
1305 2 17.2707 3.86738 17.2764 
1444 1 18.2808 3.95893 17.7244 
593 2 10.3132 4.51178 0.338842 
264 1 9.61338 4.36645 1.06901 
270 1 9.68792 5.28734 0.365812 
265 2 10.6531 4.58549 1.19359 
601 2 9.52124 4.30104 0.044105 
595 2 11.2119 4.38781 0.26362 
599 1 11.69 4.96922 0.927929 
435 1 10.8758 5.30198 0.19547 
223 1 12.4239 4.21824 1.38797 
123 2 13.0401 4.94093 1.04556 
121 2 13.1287 4.20253 0.444726 
604 1 12.7581 5.06075 0.0533331 
100 2 14.0307 4.99941 0.914358 
1038 1 15.2876 5.1416 1.31886 
1453 1 14.8251 5.16706 0.349779 
1350 1 14.1377 4.2327 0.262909 
1449 2 15.7861 4.69301 0.432595 
1134 2 16.1176 4.58124 1.2591 
1451 1 16.5776 5.14345 0.0373198 
1458 1 16.9542 5.02373 1.02568 
1125 1 17.5855 4.71287 0.220493 
1145 2 17.9729 4.96587 1.32417 
257 1 10.1582 4.30076 2.13341 
573 1 11.379 4.56636 1.89452 
72 1 10.91 4.55426 2.89236 
40 1 12.0575 4.72435 2.71799 
55 1 12.3967 5.24107 1.74 
1037 2 13.1044 4.51097 2.04132 
1040 1 12.9807 5.27734 2.63654 
92 2 13.5876 5.21786 1.70647 
1138 1 13.177 4.23004 2.98833 
1140 1 14.4773 4.56922 1.69453 
937 2 13.8909 4.85563 2.49837 
58 2 14.5482 5.16038 3.05294 
889 1 15.2536 4.96863 2.40304 
611 1 16.2828 5.10374 2.15857 
1053 2 15.4263 4.19249 1.73225 
893 1 18.1858 4.47309 3.08326 
1127 2 17.2813 4.99386 1.96517 
991 1 18.1695 5.26423 2.30744 
1044 2 17.9336 4.3529 2.00321 
1136 1 17.0993 4.98333 2.93651 
939 1 9.4604 4.3949 3.11799 
73 2 9.43721 4.67072 4.09326 
255 2 10.2688 4.60013 3.69322 
177 2 10.9343 4.41775 4.31592 
71 1 11.6653 4.74853 3.7476 
75 2 12.6661 4.87759 3.55673 
168 1 13.6216 4.29436 4.01277 
1010 1 13.6596 5.17372 3.4313 
262 2 12.6803 4.27344 4.29429 
1061 1 13.1093 5.21717 4.3797 
1054 2 14.1823 4.34404 3.15269 
896 2 15.1583 4.31569 3.36097 
936 2 14.465 4.77641 3.94639 
890 1 15.3354 5.23555 3.68957 
1047 2 15.1516 4.31101 4.33308 
1039 2 16.0913 4.87857 3.11772 
1088 2 15.9261 4.37284 3.88094 
1115 1 16.7476 4.90563 3.96908 
994 1 15.8377 5.05009 4.61018 
1151 1 17.8127 5.1187 3.85533 
1082 1 17.4151 4.35302 4.58272 
995 2 18.2308 4.1969 4.03956 
1020 2 17.4217 4.17949 3.56789 
77 2 9.34554 4.5371 5.0452 
258 1 10.208 5.18037 5.94634 
260 1 10.2461 4.96787 4.80572 
78 2 9.39946 4.42095 6.09255 
5 2 11.0806 5.15873 5.37516 
3 1 12.02 4.8685 4.73613 
6 1 11.9334 4.91586 5.83441 
4 1 11.2975 4.2202 5.23088 
178 2 11.0033 4.49654 6.11011 
1060 2 12.8366 4.8288 5.27934 
1015 1 12.7203 4.20854 6.1227 
256 1 13.0013 5.28228 6.12157 
269 2 13.6282 4.50312 6.10238 
1074 1 13.8384 4.95905 5.21195 
957 1 14.9115 4.76772 5.19098 
1072 1 14.4222 5.10175 6.14703 
911 1 15.9473 4.62438 5.61856 
921 1 16.8557 5.19081 5.02658 
989 2 16.4099 4.26274 4.81469 
907 2 17.8253 4.35363 5.47646 
963 1 18.0033 5.18667 4.9528 
910 2 16.914 4.33768 5.54668 
33 1 10.2521 4.47004 6.77736 
32 1 9.21658 4.93303 7.10816 
170 1 11.4845 4.90636 6.88499 
165 1 10.9516 4.39802 7.64909 
172 1 12.5505 4.66204 7.08965 
920 1 13.6707 5.15293 6.92852 
914 2 13.4184 4.19247 6.93773 
1016 2 14.2862 4.29455 6.6903 
1013 2 14.9089 4.32913 7.32927 
1093 1 15.1926 4.32346 6.27828 
1017 1 15.9443 5.12076 6.57857 
872 1 16.8161 5.0103 7.2293 
1022 2 15.7947 4.24958 7.13313 
927 1 16.535 4.20652 6.45776 
969 1 17.4389 4.76005 6.33699 
926 2 18.0231 4.74198 7.1732 
136 1 9.89292 4.44636 7.79814 
562 2 10.5698 4.47518 8.61386 
164 2 9.85773 5.04405 8.73243 
1 2 11.3298 4.93048 8.3892 
998 2 12.101 4.50587 8.00686 
461 1 11.9537 4.78932 9.13134 
563 1 13.2038 4.80045 8.55847 
9 1 13.9525 4.57033 7.79044 
919 2 14.6958 4.7806 8.49636 
1570 2 14.1206 4.55331 9.17457 
543 2 16.5096 4.25709 7.83259 
909 1 15.5291 4.30002 8.15942 
908 1 17.8927 4.441 9.01158 
905 1 17.474 4.52386 8.001 
700 1 9.60644 4.55525 10.54 
155 1 10.1078 4.60751 9.58667 
662 1 10.7642 4.7417 10.4064 
1584 1 11.8396 4.74521 10.2195 
565 2 11.1106 4.33174 9.54058 
462 1 10.9558 5.23723 9.30604 
1582 1 13.2443 4.23282 9.57059 
1566 2 14.7278 4.33632 9.82979 
535 1 14.0345 5.07429 10.027 
1569 1 15.1889 5.02067 10.3778 
1027 2 16.3384 4.53802 9.69591 
1556 1 16.8721 4.86843 10.4683 
466 1 15.3896 4.82388 9.28988 
1317 1 17.9086 4.39363 10.5639 
637 2 9.6548 5.14859 11.4416 
453 1 10.6197 4.88283 11.4927 
463 1 11.4556 4.28262 11.2551 
714 1 12.2697 5.04787 11.2054 
460 1 11.8393 4.73085 12.2442 
540 1 13.3006 4.9963 10.8631 
459 1 13.6055 4.79402 11.9526 
1356 2 14.7478 4.4879 12.0553 
1354 1 14.3267 4.88765 11.1616 
513 2 15.2619 4.60324 11.3236 
1562 2 15.9678 4.6065 10.7514 
1560 2 15.9761 5.17221 11.4347 
1400 1 15.3525 5.25102 12.2515 
1369 2 16.7232 4.96292 11.9583 
1318 1 15.8712 4.33567 12.0315 
1353 2 17.4259 4.8928 11.3308 
1360 2 17.5438 4.67968 12.2004 
1432 1 18.3804 4.89086 11.6974 
702 1 9.96057 5.02031 12.394 
692 1 10.1865 5.08783 13.5665 
456 2 9.29054 5.1873 13.1259 
703 1 10.904 4.67673 12.8199 
514 1 11.837 4.34002 13.2632 
1484 1 13.3996 4.24877 12.8824 
1471 1 14.3601 4.79468 12.9273 
1464 2 14.8436 4.45832 13.7278 
468 2 15.393 4.49597 12.9731 
1422 1 16.3614 4.7257 12.9715 
1479 2 18.226 5.01545 12.7032 
1550 1 17.3075 5.24025 12.966 
1378 2 17.641 4.31948 13.0382 
1420 1 17.0217 4.49197 13.8081 
690 2 9.41784 4.55014 13.8938 
458 1 9.93 4.92978 14.6812 
517 1 11.1243 4.78098 13.9993 
465 1 11.6957 4.91648 15.1168 
494 2 11.9944 4.23255 14.4175 
1489 1 13.181 4.29626 14.014 
512 1 12.7525 4.66992 15.0837 
1421 2 14.2171 4.27253 14.357 
619 1 14.0762 4.94192 15.1058 
1330 1 15.077 4.67591 14.7349 
440 1 16.3995 4.2673 14.8193 
1455 1 15.8641 4.66371 13.9344 
1528 2 18.2749 4.23601 15.3135 
1564 1 17.0351 5.20597 14.647 
1496 2 17.395 4.30624 14.9314 
1481 1 17.9921 4.7763 14.3216 
476 1 9.63905 5.28452 15.7583 
483 1 9.53283 4.93088 16.8233 
478 2 10.0608 4.4307 16.0813 
588 2 9.28005 4.39505 15.6112 
475 1 10.6155 5.11736 16.6344 
591 1 10.701 4.95402 15.5341 
508 1 11.1186 4.20194 16.2496 
473 1 12.1814 4.47243 16.0468 
696 1 12.9145 5.202 16.3727 
709 2 13.4081 4.50043 15.8291 
1492 1 14.7584 4.27162 15.6906 
436 2 13.9063 4.33126 16.6382 
1502 1 14.0052 5.23963 16.1261 
1336 1 14.799 4.76112 16.6669 
1517 2 14.9348 5.23258 15.7659 
1495 1 15.8088 4.78039 15.5585 
1332 1 15.8517 5.11838 16.5469 
1527 2 16.8578 4.78841 15.5753 
1343 1 17.5426 4.19752 15.9639 
1522 1 17.8411 5.1012 15.4144 
1325 1 17.8636 5.26581 16.5401 
1497 1 16.9308 4.68765 16.6836 
1302 2 17.8638 4.3483 16.851 
472 2 10.2479 4.26556 17.025 
594 1 10.167 4.92174 17.8115 
433 1 11.8613 4.21371 17.0421 
695 2 11.5498 5.14639 17.0109 
479 1 11.7659 4.91375 18.0248 
596 2 10.9822 4.56972 17.4853 
490 1 12.5824 5.05485 17.3498 
69 1 13.3833 4.37095 17.8163 
1440 1 14.4431 4.24647 17.584 
1130 2 15.1821 4.47034 18.1492 
608 1 13.8308 5.16425 17.2027 
1434 1 13.8463 5.21164 18.2848 
1335 2 14.766 5.1752 17.6377 
610 2 15.5097 4.67398 17.3247 
1454 2 15.6138 5.25051 18.0588 
434 2 16.3527 5.08014 17.431 
1436 2 16.0524 4.40753 17.9396 
1129 2 16.9123 4.44539 17.7949 
1441 2 17.6824 4.82011 17.5786 
ITEM: TIMESTEP
600000
ITEM: NUMBER OF ATOMS
863
ITEM: BOX BOUNDS pp ff pp
0.0282851 18.4034
-1 6
0.0282851 18.4034
ITEM: ATOMS id type x y z 
196 2 2.39178 3.26387 2.54894 
126 1 1.94805 3.25139 8.18558 
496 2 4.75285 3.22801 16.8846 
1119 2 1.28158 3.79339 1.08758 
887 1 0.284722 4.17943 1.24935 
1143 2 1.31491 3.32698 0.317829 
897 2 0.728563 4.06266 0.316355 
289 2 0.56219 3.2893 0.843983 
988 2 2.30597 3.89644 0.94936 
275 1 2.73346 3.7678 0.0544583 
194 2 3.11551 3.45855 0.884709 
268 1 4.30917 3.58139 0.822757 
286 1 5.24987 3.90218 0.34 
283 2 5.17989 3.45952 1.24056 
284 2 5.91786 3.31325 0.800155 
259 1 5.84569 4.24391 1.18392 
16 2 6.25136 4.01408 0.323922 
280 1 6.77817 3.73697 1.16682 
279 2 7.59068 3.35186 0.474891 
1067 2 7.22027 4.14369 0.31114 
249 2 7.7332 3.96745 1.16712 
276 2 8.42228 3.34087 0.933921 
263 2 8.16798 4.07271 0.390457 
278 2 9.05909 3.8294 0.502306 
222 2 8.62201 4.18978 1.18443 
892 2 0.484552 3.61903 2.75152 
191 1 0.71062 3.36094 1.81733 
193 1 1.52131 3.8032 2.64599 
21 1 2.75764 3.7667 1.78609 
151 2 2.41424 4.15503 2.81688 
197 1 3.92936 3.62506 2.54702 
199 2 4.53129 3.58007 1.82158 
23 1 3.76478 4.24998 1.6424 
200 2 5.98645 3.31314 1.70678 
10 1 4.89949 3.57905 2.90369 
11 2 5.37478 3.87455 2.01443 
8 1 5.9378 3.32387 2.76426 
26 1 7.4226 3.95987 2.15947 
12 2 6.82494 3.69091 2.90934 
34 1 6.34406 4.13242 2.13006 
80 2 8.86985 3.47312 2.50887 
14 2 8.3081 3.66131 1.8336 
189 1 1.12202 3.44104 3.59677 
1070 1 0.134596 3.86034 3.61173 
869 1 2.82486 4.06649 4.02431 
187 2 2.11308 3.46895 3.39672 
188 1 1.8898 3.69241 4.34999 
186 1 3.09378 3.52983 3.19562 
185 2 3.61889 3.42553 4.27124 
85 1 4.41582 4.05308 4.50285 
184 1 3.9784 4.0617 3.5304 
82 2 6.03505 4.00022 4.25256 
183 2 5.58015 3.36933 3.69915 
182 2 5.30451 3.54448 4.53664 
25 2 6.13678 4.07277 3.37209 
79 1 5.148 4.24428 3.73747 
181 2 6.53502 3.36192 3.69779 
180 1 6.93175 3.67429 4.56166 
81 2 7.67785 3.68441 3.10645 
22 1 7.15658 4.21197 3.69909 
13 1 9.03369 3.92921 4.17561 
28 2 8.52805 3.64455 3.35176 
266 2 7.91851 3.73176 4.3204 
144 2 1.24386 4.20526 5.88572 
38 1 0.855398 3.69197 5.04135 
934 1 0.229604 3.98772 5.93126 
43 2 1.06391 3.33087 5.94345 
61 1 2.83169 3.50969 4.91799 
62 1 1.9162 3.53732 5.43621 
63 1 2.96964 3.70753 5.99792 
64 2 4.51625 3.83823 5.42325 
65 2 3.94939 3.69734 6.13516 
66 2 5.25986 3.34053 5.58272 
70 1 6.06499 3.73699 5.21685 
35 2 5.29437 4.24576 5.64556 
198 2 7.59189 3.61271 5.33126 
190 1 6.7131 3.61793 6.10434 
1118 2 6.97305 4.25512 5.42036 
245 1 8.41823 4.10723 5.06405 
48 1 8.51208 3.72755 6.05898 
207 1 0.900426 3.91292 6.77847 
59 2 1.59424 3.84464 7.47071 
57 1 1.94709 3.75789 6.51848 
56 2 2.50713 3.87518 7.35968 
37 2 4.31352 4.11271 6.88548 
54 1 3.42552 3.65244 6.9512 
53 2 5.73822 3.76149 6.21347 
36 1 5.30746 3.81363 7.11346 
52 2 4.83786 3.74738 6.27186 
49 2 6.92529 3.6464 7.05446 
150 2 7.57677 4.05715 6.5952 
248 2 6.24415 4.1877 6.7796 
2 2 8.34425 3.83369 7.02325 
7 2 8.83101 4.25073 7.61827 
922 2 0.583849 3.98243 7.69428 