ITEM: TIMESTEP
1
ITEM: NUMBER OF ATOMS
1
ITEM: BOX BOUNDS pp ff pp
0.0282851 18.4034
-1 6
0.0282851 18.4034
ITEM: ATOMS id type x y z eventframe
1 2 3.501252 3.179980 0.807485 1
